 Q-Chem 6.0 (devel), Q-Chem, Inc., Pleasanton, CA (2022)
 Q-Chem 6.0.1 for Intel X86 EM64T Linux

User input:
--------------------------------------------------------------
$molecule
0  1

C
C  1  r2
C  2  r3  1  a3
C  3  r4  2  a4  1  d4
C  4  r5  3  a5  2  d5
C  5  r6  4  a6  3  d6
C  6  r7  5  a7  4  d7
C  7  r8  6  a8  5  d8
C  8  r9  7  a9  6  d9
C  9  r10  8  a10  7  d10
C  10  r11  9  a11  8  d11
C  11  r12  10  a12  9  d12
C  12  r13  11  a13  10  d13
C  13  r14  12  a14  11  d14
C  14  r15  13  a15  12  d15
C  1  r16  2  a16  3  d16
C  1  r17  2  a17  3  d17
C  5  r18  4  a18  3  d18
C  9  r19  8  a19  7  d19
C  13  r20  12  a20  11  d20
H  2  r21  1  a21  3  d21
H  2  r22  1  a22  3  d22
H  3  r23  2  a23  1  d23
H  3  r24  2  a24  1  d24
H  4  r25  3  a25  2  d25
H  4  r26  3  a26  2  d26
H  7  r27  6  a27  5  d27
H  8  r28  7  a28  6  d28
H  10  r29  9  a29  8  d29
H  11  r30  10  a30  9  d30
H  12  r31  11  a31  10  d31
H  14  r32  13  a32  12  d32
H  16  r33  1  a33  2  d33
H  16  r34  1  a34  2  d34
H  16  r35  1  a35  2  d35
H  17  r36  1  a36  2  d36
H  17  r37  1  a37  2  d37
H  17  r38  1  a38  2  d38
H  18  r39  5  a39  4  d39
H  18  r40  5  a40  4  d40
H  18  r41  5  a41  4  d41
H  19  r42  9  a42  8  d42
H  19  r43  9  a43  8  d43
H  19  r44  9  a44  8  d44
H  20  r45  13  a45  12  d45
H  20  r46  13  a46  12  d46
H  20  r47  13  a47  12  d47
H  15  r48  14  a48  13  d48
O  15  r49  14  a49  13  d49

r2= 1.5555
r3= 1.5120
a3= 111.22
r4= 1.5243
a4= 108.46
d4=  64.30
r5= 1.5212
a5= 113.95
d5= 310.19
r6= 1.3832
a6= 122.07
d6=  19.01
r7= 1.5093
a7= 124.11
d7= 179.66
r8= 1.3496
a8= 125.32
d8= 323.81
r9= 1.5015
a9= 125.65
d9= 182.04
r10= 1.3560
a10= 117.08
d10= 177.86
r11= 1.4878
a11= 124.49
d11= 179.76
r12= 1.3459
a12= 120.32
d12= 180.59
r13= 1.4994
a13= 125.67
d13= 270.51
r14= 1.3544
a14= 117.15
d14= 180.51
r15= 1.4800
a15= 124.38
d15= 179.94
r16= 1.5489
a16= 105.91
d16= 192.61
r17= 1.5486
a17= 110.25
d17=  75.45
r18= 1.5173
a18= 112.48
d18= 202.33
r19= 1.5184
a19= 123.01
d19= 357.50
r20= 1.5176
a20= 122.92
d20=   0.48
r21= 1.1145
a21= 110.51
d21= 118.51
r22= 1.1125
a22= 110.22
d22= 236.78
r23= 1.1115
a23= 110.90
d23= 183.91
r24= 1.1090
a24= 110.22
d24= 303.00
r25= 1.1120
a25= 106.09
d25= 187.88
r26= 1.1118
a26= 110.96
d26=  71.48
r27= 1.0752
a27= 115.84
d27= 149.64
r28= 1.0829
a28= 118.30
d28= 359.05
r29= 1.0881
a29= 118.72
d29= 359.91
r30= 1.0776
a30= 118.73
d30=   0.44
r31= 1.0882
a31= 117.31
d31=  180
r32= 1.0877
a32= 119.34
d32= 359.99
r33= 1.1119
a33= 110.69
d33= 302.81
r34= 1.1096
a34= 112.08
d34= 183.40
r35= 1.1116
a35= 110.59
d35=  62.89
r36= 1.1086
a36= 111.64
d36= 294.56
r37= 1.1088
a37= 111.81
d37= 174.50
r38= 1.1113
a38= 110.59
d38=  55.22
r39= 1.1105
a39= 108.74
d39=  52.14
r40= 1.1101
a40= 110.00
d40= 293.65
r41= 1.1002
a41= 115.98
d41= 167.46
r42= 1.1016
a42= 114.91
d42= 359.49
r43= 1.1105
a43= 109.52
d43= 239.78
r44= 1.1106
a44= 109.60
d44= 119.93
r45= 1.1021
a45= 114.57
d45=   0.13
r46= 1.1105
a46= 109.60
d46= 239.98
r47= 1.1106
a47= 109.57
d47= 120.16
r48= 1.0841
a48= 121.70
d48=   0.03
r49= 1.2202
a49= 119.67
d49= 180.06
$end

$rem
   BASIS  = 6-31+G*
   GUI  =  2
   JOB_TYPE  =  Optimization
   METHOD  =  wB97X-D
   SCF_CONVERGENCE  =  8
   MEM_TOTAL = 300000
   MEM_STATIC = 2000
$end
--------------------------------------------------------------

   16    -853.7755518085      7.97e-09  Convergence criterion met
 Total energy in the final basis set =     -853.7755518085
   14    -853.8286708544      8.22e-09  Convergence criterion met
 Total energy in the final basis set =     -853.8286708544
   14    -853.8544200753      5.99e-09  Convergence criterion met
 Total energy in the final basis set =     -853.8544200753
   14    -853.8732651529      6.58e-09  Convergence criterion met
 Total energy in the final basis set =     -853.8732651529
   14    -853.8859933467      5.30e-09  Convergence criterion met
 Total energy in the final basis set =     -853.8859933467
   14    -853.8905448555      5.66e-09  Convergence criterion met
 Total energy in the final basis set =     -853.8905448555
   13    -853.8921845892      5.69e-09  Convergence criterion met
 Total energy in the final basis set =     -853.8921845892
   12    -853.8926165307      7.61e-09  Convergence criterion met
   11    -853.8952479832      9.91e-09  Convergence criterion met
 Total energy in the final basis set =     -853.8952479832
   11    -853.8952592137      8.65e-09  Convergence criterion met
 Total energy in the final basis set =     -853.8952592137
   10    -853.8952645221      9.87e-09  Convergence criterion met
 Total energy in the final basis set =     -853.8952645221
   10    -853.8952674225      6.34e-09  Convergence criterion met
 Total energy in the final basis set =     -853.8952674225
    9    -853.8952699239      5.61e-09  Convergence criterion met
 Total energy in the final basis set =     -853.8952699239
    9    -853.8952716366      5.05e-09  Convergence criterion met
 Total energy in the final basis set =     -853.8952716366
    9    -853.8952726060      5.53e-09  Convergence criterion met
 Total energy in the final basis set =     -853.8952726060

                    Orbital Energies (a.u.)
 --------------------------------------------------------------

 Alpha MOs
 -- Occupied --
-19.2658 -10.3841 -10.3482 -10.3342 -10.3261 -10.3195 -10.3185 -10.3146
-10.3136 -10.3135 -10.3129 -10.3121 -10.3092 -10.3082 -10.3069 -10.3013
-10.2969 -10.2952 -10.2938 -10.2917 -10.2884  -1.1391  -0.9650  -0.9536
 -0.9367  -0.8968  -0.8929  -0.8691  -0.8372  -0.8214  -0.8066  -0.7892
 -0.7875  -0.7777  -0.7504  -0.7142  -0.6850  -0.6667  -0.6500  -0.6355
 -0.6308  -0.6057  -0.5842  -0.5767  -0.5671  -0.5505  -0.5441  -0.5365
 -0.5295  -0.5280  -0.5198  -0.5181  -0.5140  -0.5037  -0.4994  -0.4947
 -0.4929  -0.4871  -0.4822  -0.4773  -0.4769  -0.4673  -0.4600  -0.4558
 -0.4479  -0.4397  -0.4357  -0.4309  -0.4272  -0.4262  -0.4065  -0.4002
 -0.3900  -0.3781  -0.3537  -0.3349  -0.3166  -0.2715

          Ground-State Mulliken Net Atomic Charges

     Atom                 Charge (a.u.)
  ----------------------------------------
      1 C                    -0.402134
      2 C                    -0.218325
      3 C                    -0.447404
      4 C                    -0.557014
      5 C                     0.260525
      6 C                     0.509815
      7 C                     0.007494
      8 C                    -1.438839
      9 C                     0.319827
     10 C                     0.045974
     11 C                    -0.168012
     12 C                    -0.457228
     13 C                     1.057373
     14 C                    -0.429361
     15 C                     0.071162
     16 C                    -0.503906
     17 C                    -0.594319
     18 C                    -0.670647
     19 C                    -1.038421
     20 C                    -1.021214
     21 H                     0.220415
     22 H                     0.212790
     23 H                     0.210848
     24 H                     0.213965
     25 H                     0.210808
     26 H                     0.229329
     27 H                     0.183700
     28 H                     0.195406
     29 H                     0.179591
     30 H                     0.196624
     31 H                     0.199156
     32 H                     0.220938
     33 H                     0.222261
     34 H                     0.228367
     35 H                     0.235413
     36 H                     0.226001
     37 H                     0.216939
     38 H                     0.222775
     39 H                     0.215205
     40 H                     0.230508
     41 H                     0.244613
     42 H                     0.217322
     43 H                     0.238835
     44 H                     0.246658
     45 H                     0.243522
     46 H                     0.219107
     47 H                     0.240979
     48 H                     0.157876
     49 O                    -0.405295
  ----------------------------------------
  Sum of atomic charges =     0.000000

                    Cartesian Multipole Moments
 -----------------------------------------------------------------
    Charge (ESU x 10^10)
                -0.0000
    Dipole Moment (Debye)
         X       6.4962      Y      -0.9418      Z      -0.1867
       Tot       6.5668
    Quadrupole Moments (Debye-Ang)
        XX    -188.2745     XY      10.7790     YY    -124.7736
        XZ       3.4117     YZ       4.9811     ZZ    -130.5980

 Final energy is -853.895272606002
	**  OPTIMIZATION CONVERGED  **

             Standard Nuclear Orientation (Angstroms)
    I     Atom           X                Y                Z
 ----------------------------------------------------------------
    1      C       4.1270968352    -0.6923583711     0.6555210289
    2      C       5.0450453552     0.2936557078     1.4007170417
    3      C       5.4624791954     1.4773589532     0.5385328051
    4      C       4.2273470770     2.2563433535     0.1005873220
    5      C       3.0833798007     1.3846920845    -0.3727322021
    6      C       3.0219707460     0.0621509028    -0.1048659675
    7      C       1.8969517261    -0.7886903703    -0.5445081706
    8      C       0.5964311533    -0.5161419948    -0.3407298960
    9      C      -0.5606178259    -1.3160909706    -0.7425604969
   10      C      -1.7936569128    -0.8338974040    -0.4362105767
   11      C      -3.0378371200    -1.4916517283    -0.7794171877
   12      C      -4.3251016663    -1.1521116410    -0.5226803414
   13      C      -4.9107495458    -0.0416561320     0.2335224416
   14      C      -6.2571551298     0.1135779299     0.1457084997
   15      C      -7.0651899788     1.1461695369     0.7946755318
   16      C       3.5019505237    -1.6320511914     1.7030902205
   17      C       4.9570284601    -1.5372484501    -0.3316444119
   18      C       2.0421131964     2.1463914047    -1.1568259281
   19      C      -0.3701193681    -2.6273859805    -1.4678265552
   20      C      -4.0324307704     0.8520744318     1.0717945701
   21      H       4.5139817154     0.6735695026     2.2853909396
   22      H       5.9249264771    -0.2479909825     1.7714693571
   23      H       6.1442028657     2.1317848968     1.0936920240
   24      H       6.0116010980     1.1279681173    -0.3445628116
   25      H       4.4904265792     2.9649416171    -0.6952056551
   26      H       3.8631957455     2.8760111221     0.9357443785
   27      H       2.1774702416    -1.7291141528    -1.0167910252
   28      H       0.3522932290     0.4025565731     0.1921781497
   29      H      -1.8326950014     0.1150161119     0.0854802668
   30      H      -2.9274518513    -2.4034342483    -1.3634315111
   31      H      -5.0724684289    -1.8151808347    -0.9549881470
   32      H      -6.8368031461    -0.5693546647    -0.4725044323
   33      H       4.2915159159    -2.0963240215     2.3066744361
   34      H       2.9185117606    -2.4356123972     1.2412177824
   35      H       2.8359339316    -1.0792558487     2.3752979318
   36      H       5.4615749108    -0.9107456798    -1.0738658730
   37      H       4.3334531674    -2.2548995042    -0.8762506143
   38      H       5.7193396594    -2.1112365343     0.2096562397
   39      H       2.5310273468     2.8372467318    -1.8543227732
   40      H       1.4206621384     2.7619299923    -0.4918175713
   41      H       1.3769424767     1.4975722456    -1.7296394343
   42      H       0.6783555390    -2.8295340275    -1.6905568146
   43      H      -0.9083067634    -2.6330784567    -2.4217759695
   44      H      -0.7457103059    -3.4650679085    -0.8698586833
   45      H      -3.3632262119     0.2495576526     1.6933985052
   46      H      -4.6054201267     1.5017344488     1.7336064477
   47      H      -3.4141096190     1.4930289571     0.4339908671
   48      H      -6.5487593549     1.8793863618     1.4423806172
   49      O      -8.2717968147     1.2306652117     0.6458044296
 ----------------------------------------------------------------

 Total job time:  3205.28s(wall), 44181.16s(cpu)
        *  Thank you very much for using Q-Chem.  Have a nice day.  *
